# vtk DataFile Version 3.0
vtk output
ASCII
DATASET POLYDATA
POINTS 20302 float
40.8584 -24.2028 37.7655 45.3632 -24.8757 36.532 46.4719 -25.0109 36.1091 
47.5676 -25.309 36.0529 48.6447 -25.708 36.1931 49.7524 -25.9593 36.0869 
50.821 -25.8906 35.3719 51.8374 -26.0569 34.3926 52.4412 -26.9585 34.5594 
53.1563 -27.8528 34.9124 54.1018 -28.4956 34.9468 55.166 -28.916 34.9799 
56.198 -29.4053 35.4939 57.3087 -29.5289 35.1294 58.2117 -28.9195 34.4428 
58.993 -28.1477 33.7486 59.9121 -27.4646 33.9203 60.785 -26.7554 34.5602 
61.7646 -26.1886 34.2833 62.6953 -25.9603 32.9156 63.7932 -26.0108 32.3255 
64.1718 -26.1481 32.2661 65.2138 -26.5159 31.7622 66.3123 -26.5339 31.2927 
67.4434 -26.3762 31.4024 68.5843 -26.4539 31.7168 69.6885 -26.6117 31.3417 
70.8107 -26.6552 30.994 71.9502 -26.6828 30.8949 73.0707 -26.8981 30.8445 
74.1726 -27.1986 30.7964 75.3053 -27.3438 30.7493 76.4275 -27.1554 30.7077 
77.5673 -27.0922 30.6635 78.5885 -27.5775 30.6155 79.5739 -28.1574 30.5664 
80.668 -28.4796 30.5101 81.7893 -28.6848 30.3993 82.8489 -28.9567 29.7872 
83.9408 -29.2738 29.6218 84.8756 -29.9196 30.1978 85.899 -30.4355 30.2773 
86.9637 -30.8513 30.2351 88.0602 -31.1735 30.1868 89.1989 -31.2719 30.1403 
90.3416 -31.2922 30.0947 91.4655 -31.4995 30.0471 92.5994 -31.6447 30 
93.7426 -31.6376 29.9549 94.8858 -31.6294 29.91 96.0226 -31.7449 29.865 
97.1551 -31.5872 29.8359 98.2934 -31.4546 29.8828 99.254 -30.9001 30.7148 
100.521 -30.4171 31.4333 101.512 -29.9508 32.0977 102.573 -29.5393 31.9803 
103.482 -29.1941 33.4698 104.576 -29.1135 34.4964 105.47 -28.8138 36.1604 
106.382 -28.1355 35.9789 107.342 -27.6212 36.0338 108.439 -27.7132 36.3252 
109.484 -27.5972 37.0771 110.561 -27.3102 37.6947 111.645 -27.2689 38.8066 
112.544 -26.6009 39.0379 113.508 -26.1614 39.2728 114.387 -26.3607 40.6923 
115.107 -26.6715 42.6591 116.156 -26.6939 42.6094 117.135 -26.5269 42.7989 
118.181 -26.9623 42.8127 119.151 -27.4652 43.7348 120.149 -27.0342 44.0408 
120.813 -26.2492 43.9391 121.655 -25.5923 45.0175 122.11 -24.632 45.6226 
122.958 -24.0045 45.8909 123.888 -23.3769 45.8972 124.953 -23.1647 46.5291 
126.037 -23.4535 46.8779 126.654 -24.275 47.5616 126.862 -25.3778 48.1815 
127.457 -25.2638 49.4538 100.326 -30.8953 29.707 101.463 -31.0084 29.6614 
102.607 -31.0005 29.6324 102.854 -30.8718 29.2866 103.961 -30.9923 29.8082 
104.766 -31.6298 30.5481 105.493 -32.4465 30.2137 106.535 -32.8016 29.9947 
107.418 -33.4947 29.946 108.381 -34.0911 29.756 109.391 -34.5599 30.022 
110.032 -35.4844 29.7236 110.575 -36.4763 29.5762 111.232 -37.4134 29.7362 
111.861 -38.3564 30.0187 112.671 -39.0972 30.1442 113.592 -39.7 29.5729 
114.483 -40.3268 28.961 115.213 -41.1857 28.8403 115.846 -42.0917 28.5169 
116.435 -43.0114 28.9338 116.806 -43.9868 30.1905 117.356 -44.9798 30.1881 
117.919 -45.6898 28.7508 118.33 -46.4683 27.5256 118.672 -47.5323 27.393 
119.069 -48.5475 26.9243 119.69 -49.4919 26.9257 120.298 -50.4639 27.0563 
120.839 -51.4715 27.0329 121.817 -51.9878 26.6374 122.678 -52.5875 25.7224 
123.702 -53.0915 25.702 124.721 -53.545 25.3034 125.64 -54.2137 25.134 
126.563 -54.879 25.0471 127.459 -55.59 25.4261 128.333 -56.3201 25.315 
129.258 -56.9738 25.1444 130.274 -57.4955 25.1481 131.306 -57.9077 24.7654 
132.41 -58.0532 24.3241 133.488 -58.3574 24.3346 134.529 -58.7727 24.4553 
135.628 -59.0295 24.2426 136.703 -59.3425 23.9355 137.804 -59.5625 23.7249 
138.895 -59.6427 23.272 139.952 -59.8694 22.6922 141.01 -60.2373 22.2968 
142.066 -60.6043 21.902 143.124 -60.9722 21.5065 144.182 -61.3403 21.1112 
145.268 -61.6337 20.8105 146.397 -61.7069 20.6932 147.54 -61.6815 20.6483 
148.677 -61.7627 20.6021 149.773 -62.0643 20.5542 150.859 -62.2515 20.118 
151.987 -62.2763 19.9028 153.064 -62.5542 19.622 153.891 -62.5481 18.0533 
154.568 -62.1453 16.1593 102.94 -31.0279 29.6502 104.075 -31.1982 29.8841 
105.21 -31.3457 29.9067 106.344 -31.3766 29.719 107.48 -31.4699 29.648 
108.609 -31.6586 29.6604 109.738 -31.8511 30.0589 110.867 -32.0547 30.4357 
111.968 -32.1649 30.0088 113.068 -32.3177 29.5207 114.134 -32.7186 29.8441 
115.245 -32.9951 29.9554 116.329 -33.2096 29.4468 117.452 -33.3713 29.2607 
118.581 -33.4853 29.0383 119.703 -33.6751 28.8977 120.841 -33.7558 28.8242 
121.913 -34.1247 28.6555 122.937 -34.5153 28.0472 124.051 -34.6016 27.6464 
125.191 -34.6061 27.5334 126.322 -34.7457 27.4151 127.447 -34.7526 27.0733 
128.56 -34.9488 26.8918 129.582 -35.0714 27.6437 130.556 -35.1849 26.7456 
131.695 -35.1823 26.974 132.824 -35.3074 27.0931 133.898 -35.6026 26.7479 
134.942 -35.8928 26.1146 136.013 -36.0763 25.441 137.1 -36.3864 25.5422 
138.16 -36.8141 25.5936 139.182 -37.3313 25.7626 140.106 -38.0097 26.0616 
141.461 -38.1162 26.0425 142.643 -38.2616 25.9935 143.141 -38.7185 25.9669 
143.684 -39.4009 25.9352 144.042 -40.1722 25.9095 144.755 -41.0514 24.6616 
145.118 -41.5982 24.639 145.481 -41.8716 24.6206 146.79 -42.1701 23.3575 
148.517 -42.5894 23.2828 149.787 -42.7328 23.2304 151.099 -43.1487 23.1722 
151.691 -43.0165 23.1507 152.55 -43.1118 23.1153 153.58 -43.463 22.2647 
154.802 -43.3797 22.2175 155.667 -42.7976 22.192 156.525 -42.9386 22.1559 
157.244 -43.5759 22.1179 157.877 -43.761 22.0901 159.63 -44.342 21.2073 
160.666 -44.7549 21.1601 161.972 -45.1229 21.1029 164.02 -45.6236 20.6121 
165.186 -46.3517 20.555 165.946 -47.0328 20.5147 167.961 -48.2144 20.4172 
64.7398 -25.9346 31.1913 65.5377 -25.2524 30.6076 65.8443 -24.2084 30.1407 
66.275 -23.2262 29.4153 66.7999 -22.2564 28.7225 67.2881 -21.5659 26.9062 
67.9799 -21.2668 25.4434 69.0684 -21.472 24.993 70.1566 -21.3646 24.5354 
71.106 -21.6459 23.6492 71.7017 -22.3758 22.2787 72.3182 -23.0261 22.4183 
73.0152 -23.9269 22.6543 73.7441 -24.4588 21.6109 74.6926 -24.5217 20.5915 
75.8155 -24.3614 20.6693 76.67 -24.9453 20.4029 77.6693 -25.4105 19.9236 
78.3551 -26.1367 18.8091 79.1043 -26.9722 18.4584 79.8972 -27.7276 17.9577 
80.8621 -28.3281 18.244 81.6887 -28.9746 18.1383 82.2201 -29.5855 16.3912 
82.7702 -30.3751 15.548 83.2749 -31.1145 14.2172 83.5163 -32.1299 14.4241 
83.6091 -33.2286 13.9791 83.6328 -33.8756 11.7965 84.0401 -34.3946 9.71276 
84.3726 -35.4488 9.24161 84.3359 -36.5665 8.874 84.3123 -37.6485 8.1551 
84.2984 -38.6702 7.39878 84.5815 -39.4612 5.99298 85.2386 -40.3531 5.83219 
85.682 -40.8151 4.38263 85.9244 -41.4619 2.34134 85.6292 -41.0916 1.8292 
86.2003 -42.5029 1.89954 86.804 -43.4541 1.80223 87.6926 -44.0526 1.34581 
88.0719 -45.0456 0.904744 88.1652 -45.9469 -0.520916 88.6941 -46.9625 -0.341884 
89.0641 -48.0433 -0.311071 89.3109 -49.1527 -0.16481 89.315 -50.2472 -0.709139 
89.2436 -51.3149 -1.3831 89.4697 -52.4188 -1.7611 89.9523 -52.9024 -3.5105 
90.2506 -53.9273 -4.36801 90.4553 -55.0256 -4.61737 90.4846 -55.9043 -6.32241 
90.7349 -56.5675 -8.25607 91.3008 -56.3417 -9.96141 91.252 -55.9374 -12.4328 
91.4054 -54.9154 -13.4599 71.6866 -21.4436 20.4114 71.6778 -20.3603 19.6334 
72.0681 -19.3401 18.8348 72.6142 -18.3759 18.238 73.0251 -17.3295 18.2719 
73.0545 -16.2088 18.4296 73.4996 -15.2581 18.4049 73.8367 -14.1988 18.1692 
74.3214 -13.1863 18.4886 74.6075 -12.1774 17.3916 75.149 -11.2883 16.4031 
75.7275 -10.3941 15.5741 76.2577 -9.46451 15.3403 76.9201 -8.54144 15.5532 
77.6944 -7.71084 15.8259 78.3783 -6.81055 15.8451 78.7179 -5.73208 16.0625 
79.24 -4.73236 15.7227 79.6314 -3.76752 14.8042 79.8465 -2.71562 15.0135 
80.4461 -1.81303 14.5511 80.9096 -0.793326 14.2463 81.2619 0.252029 14.1849 
81.356 1.38921 14.3403 81.8867 2.29698 14.3979 82.4996 3.22997 14.0558 
83.1978 3.946 13.0833 83.6276 4.95225 13.8663 84.219 5.92504 14.1645 
84.7773 6.91016 14.2146 84.894 7.95838 13.5814 84.9711 8.94382 12.165 
85.2155 10.0285 11.8597 85.6125 11.0622 12.4603 85.7088 12.0528 13.6983 
85.7771 13.0171 15.0496 86.3909 13.8996 15.9552 86.6585 14.9711 16.5809 
86.7948 16.1015 16.6401 86.8155 17.2452 16.4997 87.1605 18.2201 16.187 
87.6719 18.6157 14.5896 87.8157 19.1909 12.8614 88.2227 20.1934 13.0623 
88.4051 20.9968 11.7149 88.3624 21.8785 9.96262 89.1195 22.6973 10.166 
89.3412 23.7878 10.1881 89.2841 24.8479 10.4433 89.3975 25.7394 10.89 
89.8487 26.6562 11.786 90.1203 27.3548 10.0297 90.3129 28.4256 9.59131 
90.5199 29.5129 8.85874 39.1051 -27.7856 44.1643 38.6814 -28.603 45.7724 
38.226 -29.1971 47.8363 37.7059 -29.8418 49.5378 36.8738 -30.6073 49.4079 
35.8301 -31.0272 49.566 34.9578 -31.5235 50.6633 34.2921 -32.3497 51.5593 
33.3632 -32.985 51.7477 32.3825 -33.536 51.3083 31.5923 -34.3452 51.1109 
30.7766 -35.0329 51.7948 29.8149 -35.1202 52.8887 28.7837 -34.8472 53.6107 
27.7016 -34.5422 53.7567 26.8699 -33.8286 53.4545 26.3113 -32.9102 52.4336 
25.6008 -32.2746 50.8565 24.7415 -31.9322 49.0252 23.8773 -31.6058 47.1796 
22.879 -31.3347 45.8253 21.8005 -31.3516 44.7686 20.6737 -31.363 44.3841 
20.2787 -31.1916 46.3228 37.744 -25.6554 30.7143 36.7614 -26.2298 30.533 
35.7101 -26.6274 30.2783 34.5734 -26.6462 30.1347 33.7573 -27.4138 30.0893 
33.8377 -27.5647 29.5405 34.4056 -28.0405 27.6952 35.3524 -28.29 26.527 
36.4537 -28.3477 26.1073 37.5506 -28.4316 25.6776 38.4781 -28.9366 25.0105 
39.5598 -29.0616 24.8375 40.6035 -29.0388 23.9594 41.3787 -29.6312 22.8922 
42.3481 -30.1583 22.5199 43.059 -30.809 21.3007 43.7981 -31.5631 20.7123 
44.5447 -32.1334 19.6586 45.5999 -32.0909 18.9946 46.0773 -32.8011 17.8027 
46.5757 -33.8053 17.5044 47.095 -34.5868 16.113 47.677 -35.2304 14.9091 
48.1638 -36.1275 14.551 48.2555 -37.0727 13.0829 48.6376 -38.0134 12.1622 
49.3541 -38.8289 11.5188 50.3499 -39.3568 11.3792 50.7826 -40.3744 11.2651 
50.1104 -41.2486 10.7711 49.8616 -42.2599 9.9012 50.0615 -43.1419 9.06954 
50.7259 -43.752 7.53114 51.2323 -44.5048 6.0332 51.47 -45.4594 4.78009 
51.939 -46.3792 3.8089 52.9542 -46.7392 4.08589 53.7092 -46.9356 2.40937 
54.5641 -46.7277 0.850366 55.5112 -46.2825 -0.0937866 56.5819 -46.1175 -0.669796 
57.5672 -46.4541 -1.34362 33.9524 -28.2592 30.2623 34.1048 -29.2744 29.7478 
33.5643 -30.224 29.7941 33.4458 -30.8128 28.2244 32.3853 -31.191 27.8902 
31.3816 -31.6279 28.0961 30.4605 -32.2211 28.099 29.6945 -32.7224 29.2188 
[...]
POINT_DATA 20302
SCALARS radius double
LOOKUP_TABLE default
0.1258 0.25 0.25 0.25 0.25 0.25 0.25 0.25 0.25 
0.25 0.25 0.25 0.25 0.25 0.25 0.25 0.25 0.25 
0.25 0.25 0.25 0.25 0.25 0.25 0.25 0.25 0.25 
0.25 0.25 0.2596 0.2691 0.2786 0.2854 0.286 0.286 0.2829 
0.2738 0.2643 0.2545 0.2511 0.25 0.25 0.25 0.2604 0.2793 
0.2953 0.3112 0.3303 0.3431 0.3369 0.3242 0.3053 0.2798 0.25 
0.25 0.25 0.25 0.25 0.25 0.25 0.25 0.25 0.25 
0.25 0.25 0.25 0.25 0.25 0.25 0.25 0.25 0.25 
0.25 0.25 0.25 0.25 0.25 0.25 0.25 0.25 0.25 
0.25 0.25 0.25 0.25 0.25 0.25 0.25 0.25 0.25 
0.25 0.25 0.25 0.25 0.25 0.25 0.25 0.25 0.25 
0.25 0.25 0.25 0.25 0.25 0.25 0.25 0.25 0.25 
0.25 0.25 0.25 0.25 0.25 0.25 0.25 0.25 0.25 
0.25 0.25 0.25 0.25 0.25 0.25 0.25 0.25 0.25 
0.25 0.25 0.25 0.25 0.25 0.25 0.25 0.25 0.25 
0.25 0.25 0.25 0.25 0.25 0.25 0.25 0.25 0.25 
0.25 0.25 0.25 0.25 0.25 0.25 0.25 0.25 0.25 
0.25 0.25 0.25 0.25 0.25 0.25 0.25 0.25 0.25 
0.25 0.25 0.25 0.25 0.25 0.25 0.25 0.25 0.25 
0.25 0.25 0.25 0.25 0.25 0.25 0.25 0.25 0.25 
0.25 0.25 0.25 0.25 0.25 0.25 0.25 0.25 0.25 
0.25 0.25 0.25 0.25 0.25 0.25 0.25 0.25 0.25 
0.25 0.25 0.25 0.25 0.25 0.25 0.25 0.25 0.25 
0.25 0.25 0.25 0.25 0.25 0.25 0.25 0.25 0.25 
0.25 0.2551 0.2606 0.2633 0.2574 0.25 0.25 0.25 0.25 
0.25 0.25 0.25 0.25 0.25 0.25 0.25 0.25 0.25 
0.25 0.25 0.25 0.25 0.25 0.25 0.25 0.25 0.25 
0.25 0.25 0.25 0.25 0.25 0.25 0.25 0.25 0.25 
0.25 0.25 0.25 0.25 0.25 0.25 0.25 0.25 0.25 
0.25 0.25 0.25 0.25 0.25 0.25 0.25 0.25 0.25 
0.25 0.25 0.25 0.25 0.25 0.25 0.25 0.25 0.25 
0.25 0.25 0.25 0.25 0.25 0.25 0.25 0.25 0.25 
0.25 0.25 0.25 0.25 0.25 0.25 0.25 0.25 0.25 
0.25 0.25 0.25 0.25 0.25 0.25 0.25 0.25 0.25 
0.25 0.25 0.25 0.25 0.25 0.25 0.25 0.25 0.25 
0.25 0.25 0.25 0.25 0.25 0.25 0.25 0.25 0.25 
0.25 0.25 0.25 0.25 0.25 0.25 0.25 0.25 0.25 
0.25 0.25 0.25 0.25 0.25 0.25 0.25 0.25 0.25 
0.25 0.25 0.25 0.25 0.25 0.25 0.25 0.25 0.25 
0.25 0.25 0.25 0.25 0.25 0.25 0.25 0.25 0.25 
0.25 0.25 0.25 0.25 0.25 0.25 0.25 0.25 0.25 
0.25 0.25 0.25 0.25 0.25 0.25 0.25 0.25 0.25 
0.25 0.25 0.25 0.25 0.25 0.25 0.25 0.25 0.25 
0.25 0.25 0.25 0.25 0.25 0.25 0.25 0.25 0.25 
0.25 0.262 0.2849 0.3004 0.2986 0.2787 0.2583 0.25 0.25 
0.25 0.25 0.25 0.25 0.25 0.25 0.25 0.25 0.25 
0.25 0.25 0.25 0.25 0.25 0.25 0.25 0.25 0.25 
0.25 0.25 0.25 0.25 0.25 0.25 0.25 0.25 0.25 
0.25 0.25 0.25 0.25 0.25 0.25 0.25 0.2505 0.25 
0.25 0.25 0.25 0.25 0.25 0.25 0.25 0.25 0.25 
0.25 0.25 0.25 0.25 0.25 0.25 0.25 0.25 0.25 
0.25 0.25 0.25 0.25 0.25 0.25 0.25 0.25 0.25 
0.25 0.25 0.25 0.25 0.25 0.25 0.25 0.25 0.25 
0.25 0.25 0.25 0.25 0.25 0.25 0.25 0.25 0.25 
0.25 0.25 0.25 0.25 0.25 0.25 0.25 0.25 0.25 
0.25 0.25 0.25 0.25 0.25 0.25 0.25 0.25 0.25 
0.25 0.25 0.25 0.25 0.25 0.25 0.25 0.25 0.25 
0.25 0.25 0.25 0.25 0.25 0.25 0.2526 0.2569 0.2574 
0.25 0.25 0.25 0.25 0.25 0.25 0.25 0.25 0.25 
0.25 0.25 0.25 0.25 0.25 0.25 0.25 0.25 0.25 
0.25 0.25 0.25 0.25 0.25 0.25 0.25 0.25 0.25 
0.25 0.25 0.25 0.25 0.25 0.25 0.25 0.25 0.25 
0.25 0.25 0.25 0.25 0.25 0.25 0.25 0.25 0.25 
0.25 0.25 0.25 0.25 0.25 0.25 0.25 0.25 0.25 
0.25 0.25 0.25 0.25 0.25 0.25 0.25 0.25 0.25 
0.25 0.25 0.25 0.25 0.25 0.25 0.25 0.25 0.25 
0.25 0.25 0.25 0.25 0.25 0.25 0.25 0.25 0.25 
0.25 0.25 0.25 0.25 0.25 0.25 0.25 0.25 0.25 
0.25 0.25 0.25 0.25 0.25 0.25 0.25 0.25 0.25 
0.25 0.25 0.25 0.25 0.25 0.25 0.25 0.25 0.25 
0.25 0.25 0.25 0.25 0.25 0.25 0.25 0.25 0.25 
0.25 0.25 0.25 0.25 0.25 0.25 0.25 0.25 0.25 
0.25 0.25 0.25 0.25 0.25 0.25 0.25 0.25 0.25 
0.25 0.25 0.25 0.25 0.25 0.25 0.25 0.25 0.25 
0.25 0.25 0.2518 0.2699 0.2765 0.2726 0.2675 0.2643 0.2607 
0.2613 0.2624 0.2519 0.25 0.25 0.25 0.25 0.25 0.25 
0.25 0.25 0.25 0.25 0.25 0.25 0.25 0.25 0.25 
0.25 0.25 0.25 0.25 0.25 0.25 0.25 0.2767 0.3029 
0.3173 0.3226 0.3149 0.2961 0.2691 0.25 0.25 0.25 0.25 
0.25 0.25 0.25 0.25 0.25 0.25 0.25 0.25 0.25 
0.25 0.25 0.25 0.25 0.25 0.25 0.25 0.25 0.25 
0.25 0.25 0.25 0.25 0.25 0.25 0.25 0.25 0.25 
0.25 0.25 0.25 0.25 0.25 0.25 0.25 0.25 0.25 
0.25 0.25 0.25 0.25 0.25 0.25 0.25 0.25 0.25 
0.25 0.25 0.25 0.25 0.25 0.25 0.25 0.25 0.25 
0.25 0.25 0.25 0.25 0.25 0.25 0.25 0.25 0.25 
0.25 0.25 0.25 0.25 0.25 0.25 0.25 0.25 0.25 
0.25 0.25 0.25 0.25 0.25 0.25 0.25 0.25 0.25 
0.25 0.25 0.25 0.25 0.25 0.25 0.25 0.25 0.25 
0.25 0.25 0.25 0.25 0.25 0.25 0.25 0.2567 0.2635 
0.2638 0.2545 0.25 0.25 0.25 0.25 0.25 0.25 0.25 
0.25 0.25 0.25 0.25 0.25 0.25 0.25 0.25 0.25 
0.25 0.25 0.25 0.25 0.25 0.25 0.25 0.25 0.25 
0.25 0.25 0.25 0.25 0.25 0.25 0.25 0.25 0.25 
0.25 0.25 0.25 0.25 0.25 0.25 0.25 0.25 0.25 
0.25 0.25 0.25 0.25 0.25 0.25 0.25 0.25 0.25 
0.25 0.25 0.25 0.25 0.25 0.25 0.25 0.25 0.25 
0.25 0.25 0.25 0.25 0.25 0.25 0.25 0.25 0.25 
0.25 0.25 0.25 0.25 0.25 0.25 0.25 0.25 0.25 
0.25 0.25 0.25 0.25 0.25 0.25 0.25 0.25 0.25 
0.25 0.25 0.25 0.25 0.25 0.25 0.25 0.25 0.25 
0.25 0.25 0.25 0.25 0.25 0.25 0.25 0.25 0.25 
0.25 0.25 0.25 0.25 0.25 0.25 0.25 0.25 0.25 
0.25 0.25 0.25 0.25 0.25 0.25 0.25 0.25 0.25 
0.25 0.25 0.25 0.25 0.25 0.25 0.25 0.25 0.25 
0.25 0.25 0.25 0.25 0.25 0.25 0.25 0.25 0.25 
0.25 0.25 0.25 0.25 0.25 0.25 0.25 0.25 0.25 
0.25 0.25 0.25 0.25 0.25 0.25 0.25 0.25 0.25 
0.25 0.25 0.25 0.25 0.25 0.25 0.25 0.25 0.25 
0.25 0.25 0.25 0.25 0.25 0.25 0.25 0.25 0.25 
0.25 0.25 0.25 0.25 0.25 0.25 0.25 0.25 0.25 
0.25 0.25 0.25 0.25 0.25 0.25 0.25 0.25 0.25 
0.25 0.25 0.25 0.25 0.25 0.25 0.25 0.25 0.25 
0.25 0.25 0.25 0.25 0.25 0.25 0.25 0.25 0.25 
0.25 0.25 0.25 0.25 0.25 0.25 0.25 0.25 0.25 
0.25 0.25 0.25 0.25 0.25 0.25 0.25 0.25 0.25 
0.25 0.25 0.25 0.25 0.25 0.25 0.25 0.25 0.25 
0.25 0.25 0.25 0.25 0.25 0.25 0.25 0.25 0.25 
0.25 0.25 0.25 0.25 0.25 0.25 0.25 0.25 0.25 
0.25 0.25 0.25 0.25 0.2741 0.2612 0.25 0.25 0.25 
0.25 0.25 0.25 0.25 0.25 0.25 0.25 0.25 0.25 
0.25 0.25 0.25 0.25 0.25 0.25 0.25 0.25 0.25 
0.25 0.25 0.25 0.25 0.25 0.25 0.25 0.25 0.25 
0.25 0.25 0.25 0.25 0.2552 0.2648 0.274 0.2804 0.2882 
0.3024 0.3061 0.312 0.3157 0.3235 0.3373 0.3542 0.3719 0.3839 
0.3918 0.3922 0.382 0.3629 0.3447 0.3307 0.3231 0.321 0.3241 
0.3348 0.349 0.3639 0.3755 0.3851 0.3948 0.4004 0.3977 0.3899 
0.379 0.3662 0.3518 0.3417 0.34 0.3416 0.3432 0.3448 0.3464 
0.3416 0.3304 0.3193 0.3146 0.3113 0.3066 0.3034 0.3019 0.3002 
0.2969 0.2955 0.2955 0.2993 0.3057 0.3082 0.3043 0.2979 0.2895 
0.2778 0.265 0.2584 0.2596 0.2584 0.2596 0.2606 0.2606 0.256 
0.25 0.25 0.25 0.25 0.25 0.263 0.2854 0.3014 0.3143 
0.3209 0.324 0.3211 0.3147 0.3052 0.2988 0.2987 0.2955 0.2924 
0.286 0.286 0.2892 0.2892 0.2955 0.2955 0.2987 0.2924 0.2765 
0.2542 0.25 0.25 0.25 0.25 0.25 0.2556 0.2731 0.2972 
0.3231 0.3408 0.3487 0.3469 0.3491 0.3469 0.3408 0.34 0.3344 
0.328 0.316 0.3003 0.2784 0.2531 0.25 0.25 0.25 0.25 
0.25 0.2668 0.2891 0.3051 0.3178 0.3241 0.321 0.3051 0.3092 
0.3131 0.3053 0.2911 0.2752 0.2592 0.25 0.25 0.25 0.25 
0.25 0.25 0.25 0.25 0.25 0.25 0.25 0.25 0.2501 
0.2615 0.2687 0.2683 0.2632 0.2588 0.2518 0.25 0.25 0.25 
0.25 0.25 0.25 0.25 0.25 0.25 0.25 0.25 0.2563 
0.2574 0.2574 0.2574 0.2545 0.2512 0.25 0.25 0.25 0.25 
0.25 0.25 0.25 0.25 0.25 0.25 0.25 0.25 0.25 
0.25 0.25 0.25 0.25 0.25 0.25 0.25 0.25 0.25 
0.25 0.2579 0.2712 0.2949 0.3151 0.3205 0.3238 0.3241 0.3183 
0.3001 0.2839 0.277 0.2676 0.2609 0.2637 0.27 0.2826 0.2892 
0.2955 0.2987 0.2953 0.2886 0.2692 0.2531 0.25 0.25 0.25 
0.25 0.25 0.25 0.25 0.25 0.2515 0.2551 0.2615 0.266 
0.2591 0.25 0.25 0.25 0.25 0.25 0.25 0.25 0.25 
0.25 0.25 0.25 0.25 0.25 0.25 0.25 0.25 0.25 
0.25 0.25 0.2507 0.2699 0.289 0.3018 0.3051 0.3051 0.25 
0.25 0.25 0.25 0.25 0.25 0.25 0.25 0.25 0.25 
0.25 0.25 0.25 0.25 0.25 0.25 0.25 0.25 0.25 
0.25 0.25 0.25 0.2521 0.2725 0.297 0.3082 0.3069 0.2963 
0.2803 0.2628 0.25 0.25 0.25 0.25 0.25 0.25 0.25 
0.25 0.25 0.25 0.25 0.25 0.25 0.25 0.25 0.25 
0.25 0.25 0.25 0.25 0.25 0.25 0.25 0.25 0.25 
0.25 0.25 0.25 0.25 0.25 0.25 0.25 0.25 0.25 
0.25 0.25 0.25 0.25 0.25 0.25 0.25 0.25 0.25 
0.25 0.25 0.25 0.25 0.25 0.25 0.25 0.25 0.25 
0.25 0.25 0.25 0.25 0.25 0.25 0.25 0.25 0.25 
0.25 0.25 0.25 0.25 0.25 0.25 0.25 0.25 0.25 
0.25 0.25 0.25 0.25 0.25 0.25 0.25 0.25 0.25 
0.2507 0.2539 0.2513 0.25 0.25 0.25 0.25 0.25 0.25 
0.25 0.25 0.25 0.25 0.25 0.25 0.25 0.25 0.25 
0.25 0.25 0.25 0.25 0.25 0.25 0.25 0.25 0.25 
0.25 0.25 0.2696 0.2956 0.3241 0.3416 0.3462 0.3464 0.3374 
0.3249 0.3061 0.286 0.2765 0.2663 0.2535 0.25 0.25 0.25 
0.25 0.25 0.25 0.25 0.25 0.25 0.25 0.25 0.25 
0.2561 0.2723 0.2977 0.3169 0.3257 0.3254 0.3159 0.2971 0.2789 
0.2617 0.25 0.25 0.25 0.25 0.25 0.25 0.25 0.25 
0.25 0.25 0.2542 0.2555 0.259 0.2583 0.2525 0.2565 0.2668 
0.2606 0.251 0.3335 0.3337 0.3368 0.3305 0.3146 0.3019 0.2924 
0.25 0.25 0.25 0.25 0.25 0.25 0.25 0.25 0.25 
0.25 0.2556 0.2693 0.2755 0.2742 0.271 0.2655 0.2638 0.2614 
0.2606 0.2654 0.2669 0.2669 0.262 0.2606 0.2631 0.2638 0.2716 
0.2812 0.2882 0.2919 0.2897 0.2836 0.2717 0.2589 0.25 0.25 
0.25 0.25 0.25 0.25 0.25 0.25 0.25 0.25 0.25 
0.25 0.25 0.25 0.2539 0.2542 0.2511 0.2573 0.2574 0.2511 
0.25 0.25 0.25 0.25 0.25 0.25 0.25 0.25 0.25 
0.25 0.25 0.25 0.25 0.25 0.25 0.25 0.25 0.25 
0.25 0.25 0.25 0.25 0.25 0.25 0.25 0.25 0.25 
0.25 0.25 0.25 0.25 0.25 0.25 0.25 0.2597 0.2754 
0.2834 0.286 0.2802 0.2628 0.25 0.25 0.25 0.25 0.25 
0.25 0.25 0.25 0.25 0.25 0.25 0.25 0.25 0.25 
0.25 0.25 0.25 0.25 0.25 0.25 0.25 0.25 0.25 
0.25 0.25 0.25 0.25 0.25 0.25 0.25 0.25 0.25 
0.25 0.2684 0.2525 0.25 0.25 0.25 0.25 0.25 0.25 
0.25 0.25 0.25 0.25 0.25 0.25 0.25 0.25 0.25 
0.25 0.25 0.25 0.25 0.25 0.25 0.25 0.25 0.25 
0.25 0.25 0.25 0.25 0.25 0.25 0.2528 0.2722 0.2806 
0.2857 0.2927 0.2933 0.2862 0.2828 0.2794 0.27 0.2678 0.2754 
0.283 0.2911 0.2979 0.2925 0.2809 0.2694 0.2565 0.25 0.25 
0.25 0.25 0.25 0.25 0.25 0.25 0.25 0.2759 0.2701 
0.2695 0.2631 0.2559 0.25 0.25 0.25 0.25 0.25 0.25 
0.25 0.25 0.25 0.25 0.25 0.25 0.25 0.25 0.25 
0.25 0.25 0.25 0.25 0.25 0.25 0.25 0.25 0.25 
0.25 0.25 0.25 0.25 0.25 0.25 0.25 0.251 0.2645 
0.2727 0.2751 0.2719 0.2672 0.2576 0.25 0.25 0.25 0.25 
0.25 0.25 0.25 0.2503 0.258 0.2625 0.2619 0.2587 0.2555 
0.2521 0.25 0.25 0.25 0.25 0.25 0.25 0.25 0.25 
0.25 0.25 0.25 0.25 0.25 0.25 0.25 0.25 0.251 
0.2607 0.2625 0.2624 0.2659 0.2759 0.2822 0.2946 0.3146 0.25 
0.25 0.25 0.25 0.25 0.25 0.25 0.25 0.25 0.25 
0.25 0.25 0.266 0.2963 0.3169 0.3334 0.3384 0.3351 0.3271 
0.3123 0.2936 0.2768 0.2664 0.2606 0.2631 0.2727 0.2838 0.2923 
0.2987 0.2987 0.2961 0.2901 0.2835 0.2766 0.2765 0.25 0.25 
0.25 0.25 0.25 0.25 0.25 0.25 0.25 0.25 0.25 
0.25 0.251 0.2527 0.2542 0.25 0.25 0.2615 0.2781 0.2956 
0.3141 0.326 0.3243 0.3114 0.2938 0.2802 0.2733 0.2733 0.2784 
0.2886 0.2924 0.2836 0.2637 0.2521 0.25 0.25 0.25 0.25 
0.25 0.25 0.25 0.2606 0.2742 0.2823 0.2921 0.2915 0.2812 
0.264 0.25 0.25 0.25 0.25 0.25 0.25 0.25 0.25 
0.25 0.25 0.25 0.25 0.25 0.25 0.25 0.25 0.25 
0.25 0.25 0.25 0.25 0.25 0.25 0.25 0.25 0.25 
0.25 0.25 0.25 0.25 0.25 0.25 0.25 0.25 0.25 
0.25 0.25 0.25 0.25 0.25 0.25 0.25 0.25 0.25 
0.25 0.25 0.25 0.25 0.25 0.25 0.25 0.25 0.25 
0.25 0.25 0.25 0.25 0.25 0.25 0.25 0.25 0.25 
0.25 0.25 0.25 0.25 0.25 0.25 0.25 0.25 0.25 
0.25 0.25 0.25 0.25 0.25 0.25 0.25 0.25 0.25 
0.25 0.25 0.25 0.25 0.25 0.25 0.25 0.25 0.2537 
0.251 0.2519 0.2542 0.2527 0.25 0.25 0.25 0.25 0.25 
0.25 0.255 0.2574 0.2592 0.2606 0.2606 0.254 0.25 0.25 
0.25 0.25 0.25 0.25 0.25 0.25 0.25 0.25 0.25 
0.25 0.25 0.25 0.25 0.25 0.25 0.25 0.25 0.25 
0.25 0.25 0.25 0.25 0.1258 0.25 0.25 0.25 0.25 
0.25 0.25 0.25 0.25 0.25 0.25 0.25 0.25 0.25 
0.25 0.25 0.25 0.25 0.25 0.25 0.25 0.25 0.25 
0.25 0.25 0.25 0.25 0.25 0.25 0.2596 0.2691 0.2786 
0.2854 0.286 0.286 0.2829 0.2738 0.2643 0.2545 0.2511 0.25 
0.25 0.25 0.2604 0.2793 0.2953 0.3112 0.3303 0.3431 0.3369 
0.3242 0.3053 0.2798 0.25 0.25 0.25 0.25 0.25 0.25 
0.25 0.25 0.25 0.25 0.25 0.25 0.25 0.25 0.25 
0.25 0.25 0.25 0.25 0.25 0.25 0.25 0.25 0.25 
0.25 0.25 0.25 0.25 0.25 0.25 0.25 0.25 0.25 
0.25 0.25 0.25 0.25 0.25 0.25 0.25 0.25 0.25 
0.25 0.25 0.25 0.25 0.25 0.25 0.25 0.25 0.25 
0.25 0.25 0.25 0.25 0.25 0.25 0.25 0.25 0.25 
0.25 0.25 0.25 0.25 0.25 0.25 0.25 0.25 0.25 
0.25 0.25 0.25 0.25 0.25 0.25 0.25 0.25 0.25 
0.25 0.25 0.25 0.25 0.25 0.25 0.25 0.25 0.25 
0.25 0.25 0.25 0.25 0.25 0.25 0.25 0.25 0.25 
0.25 0.25 0.25 0.25 0.25 0.25 0.25 0.25 0.25 
0.25 0.25 0.25 0.25 0.25 0.25 0.25 0.25 0.25 
0.25 0.25 0.25 0.25 0.25 0.25 0.25 0.25 0.25 
0.25 0.25 0.25 0.25 0.25 0.25 0.25 0.25 0.25 
0.25 0.25 0.25 0.25 0.25 0.25 0.25 0.25 0.25 
0.25 0.25 0.25 0.25 0.25 0.25 0.25 0.25 0.25 
0.25 0.25 0.25 0.25 0.25 0.25 0.25 0.25 0.25 
0.25 0.25 0.25 0.25 0.25 0.2551 0.2606 0.2633 0.2574 
0.25 0.25 0.25 0.25 0.25 0.25 0.25 0.25 0.25 
0.25 0.25 0.25 0.25 0.25 0.25 0.25 0.25 0.25 
0.25 0.25 0.25 0.25 0.25 0.25 0.25 0.25 0.25 
0.25 0.25 0.25 0.25 0.25 0.25 0.25 0.25 0.25 
0.25 0.25 0.25 0.25 0.25 0.25 0.25 0.25 0.25 
0.25 0.25 0.25 0.25 0.25 0.25 0.25 0.25 0.25 
0.25 0.25 0.25 0.25 0.25 0.25 0.25 0.25 0.25 
0.25 0.25 0.25 0.25 0.25 0.25 0.25 0.25 0.25 
0.25 0.25 0.25 0.25 0.25 0.25 0.25 0.25 0.25 
0.25 0.25 0.25 0.25 0.25 0.25 0.25 0.25 0.25 
0.25 0.25 0.25 0.25 0.25 0.25 0.25 0.25 0.25 
0.25 0.25 0.25 0.25 0.25 0.25 0.25 0.25 0.25 
0.25 0.25 0.25 0.25 0.25 0.25 0.25 0.25 0.25 
0.25 0.25 0.25 0.25 0.25 0.25 0.25 0.25 0.25 
0.25 0.25 0.25 0.25 0.25 0.25 0.25 0.25 0.25 
0.25 0.25 0.25 0.25 0.25 0.25 0.25 0.25 0.25 
0.25 0.25 0.25 0.25 0.25 0.25 0.25 0.25 0.25 
0.25 0.25 0.25 0.25 0.25 0.25 0.25 0.25 0.25 
0.25 0.25 0.25 0.25 0.25 0.25 0.25 0.25 0.25 
0.25 0.25 0.25 0.25 0.25 0.262 0.2849 0.3004 0.2986 
0.2787 0.2583 0.25 0.25 0.25 0.25 0.25 0.25 0.25 
0.25 0.25 0.25 0.25 0.25 0.25 0.25 0.25 0.25 
0.25 0.25 0.25 0.25 0.25 0.25 0.25 0.25 0.25 
0.25 0.25 0.25 0.25 0.25 0.25 0.25 0.25 0.25 
0.25 0.25 0.2505 0.25 0.25 0.25 0.25 0.25 0.25 
0.25 0.25 0.25 0.25 0.25 0.25 0.25 0.25 0.25 
0.25 0.25 0.25 0.25 0.25 0.25 0.25 0.25 0.25 
0.25 0.25 0.25 0.25 0.25 0.25 0.25 0.25 0.25 
0.25 0.25 0.25 0.25 0.25 0.25 0.25 0.25 0.25 
0.25 0.25 0.25 0.25 0.25 0.25 0.25 0.25 0.25 
0.25 0.25 0.25 0.25 0.25 0.25 0.25 0.25 0.25 
0.25 0.25 0.25 0.25 0.25 0.25 0.25 0.25 0.25 
0.25 0.25 0.25 0.25 0.25 0.25 0.25 0.25 0.25 
0.25 0.2526 0.2569 0.2574 0.25 0.25 0.25 0.25 0.25 
0.25 0.25 0.25 0.25 0.25 0.25 0.25 0.25 0.25 
0.25 0.25 0.25 0.25 0.25 0.25 0.25 0.25 0.25 
0.25 0.25 0.25 0.25 0.25 0.25 0.25 0.25 0.25 
0.25 0.25 0.25 0.25 0.25 0.25 0.25 0.25 0.25 
0.25 0.25 0.25 0.25 0.25 0.25 0.25 0.25 0.25 
0.25 0.25 0.25 0.25 0.25 0.25 0.25 0.25 0.25 
0.25 0.25 0.25 0.25 0.25 0.25 0.25 0.25 0.25 
0.25 0.25 0.25 0.25 0.25 0.25 0.25 0.25 0.25 
0.25 0.25 0.25 0.25 0.25 0.25 0.25 0.25 0.25 
0.25 0.25 0.25 0.25 0.25 0.25 0.25 0.25 0.25 
0.25 0.25 0.25 0.25 0.25 0.25 0.25 0.25 0.25 
0.25 0.25 0.25 0.25 0.25 0.25 0.25 0.25 0.25 
0.25 0.25 0.25 0.25 0.25 0.25 0.25 0.25 0.25 
0.25 0.25 0.25 0.25 0.25 0.25 0.25 0.25 0.25 
0.25 0.25 0.25 0.25 0.25 0.25 0.25 0.25 0.25 
0.25 0.25 0.25 0.25 0.25 0.25 0.2518 0.2699 0.2765 
0.2726 0.2675 0.2643 0.2607 0.2613 0.2624 0.2519 0.25 0.25 
0.25 0.25 0.25 0.25 0.25 0.25 0.25 0.25 0.25 
0.25 0.25 0.25 0.25 0.25 0.25 0.25 0.25 0.25 
0.25 0.25 0.2767 0.3029 0.3173 0.3226 0.3149 0.2961 0.2691 
0.25 0.25 0.25 0.25 0.25 0.25 0.25 0.25 0.25 
0.25 0.25 0.25 0.25 0.25 0.25 0.25 0.25 0.25 
0.25 0.25 0.25 0.25 0.25 0.25 0.25 0.25 0.25 
0.25 0.25 0.25 0.25 0.25 0.25 0.25 0.25 0.25 
0.25 0.25 0.25 0.25 0.25 0.25 0.25 0.25 0.25 
0.25 0.25 0.25 0.25 0.25 0.25 0.25 0.25 0.25 
0.25 0.25 0.25 0.25 0.25 0.25 0.25 0.25 0.25 
0.25 0.25 0.25 0.25 0.25 0.25 0.25 0.25 0.25 
0.25 0.25 0.25 0.25 0.25 0.25 0.25 0.25 0.25 
0.25 0.25 0.25 0.25 0.25 0.25 0.25 0.25 0.25 
0.25 0.25 0.25 0.25 0.25 0.25 0.25 0.25 0.25 
0.25 0.25 0.2567 0.2635 0.2638 0.2545 0.25 0.25 0.25 
0.25 0.25 0.25 0.25 0.25 0.25 0.25 0.25 0.25 
0.25 0.25 0.25 0.25 0.25 0.25 0.25 0.25 0.25 
0.25 0.25 0.25 0.25 0.25 0.25 0.25 0.25 0.25 
0.25 0.25 0.25 0.25 0.25 0.25 0.25 0.25 0.25 
0.25 0.25 0.25 0.25 0.25 0.25 0.25 0.25 0.25 
0.25 0.25 0.25 0.25 0.25 0.25 0.25 0.25 0.25 
0.25 0.25 0.25 0.25 0.25 0.25 0.25 0.25 0.25 
0.25 0.25 0.25 0.25 0.25 0.25 0.25 0.25 0.25 
0.25 0.25 0.25 0.25 0.25 0.25 0.25 0.25 0.25 
0.25 0.25 0.25 0.25 0.25 0.25 0.25 0.25 0.25 
0.25 0.25 0.25 0.25 0.25 0.25 0.25 0.25 0.25 
0.25 0.25 0.25 0.25 0.25 0.25 0.25 0.25 0.25 
0.25 0.25 0.25 0.25 0.25 0.25 0.25 0.25 0.25 
0.25 0.25 0.25 0.25 0.25 0.25 0.25 0.25 0.25 
0.25 0.25 0.25 0.25 0.25 0.25 0.25 0.25 0.25 
0.25 0.25 0.25 0.25 0.25 0.25 0.25 0.25 0.25 
0.25 0.25 0.25 0.25 0.25 0.25 0.25 0.25 0.25 
0.25 0.25 0.25 0.25 0.25 0.25 0.25 0.25 0.25 
0.25 0.25 0.25 0.25 0.25 0.25 0.25 0.25 0.25 
0.25 0.25 0.25 0.25 0.25 0.25 0.25 0.25 0.25 
0.25 0.25 0.25 0.25 0.25 0.25 0.25 0.25 0.25 
0.25 0.25 0.25 0.25 0.25 0.25 0.25 0.25 0.25 
0.25 0.25 0.25 0.25 0.25 0.25 0.25 0.25 0.25 
0.25 0.25 0.25 0.25 0.25 0.25 0.25 0.25 0.25 
0.25 0.25 0.25 0.25 0.25 0.25 0.25 0.25 0.25 
0.25 0.25 0.25 0.25 0.25 0.25 0.25 0.25 0.25 
0.25 0.25 0.25 0.25 0.25 0.25 0.25 0.25 0.25 
0.25 0.25 0.25 0.25 0.25 0.25 0.25 0.25 0.25 
0.25 0.25 0.25 0.25 0.25 0.25 0.25 0.25 0.2741 
0.2612 0.25 0.25 0.25 0.25 0.25 0.25 0.25 0.25 
0.25 0.25 0.25 0.25 0.25 0.25 0.25 0.25 0.25 
0.25 0.25 0.25 0.25 0.25 0.25 0.25 0.25 0.25 
0.25 0.25 0.25 0.25 0.25 0.25 0.25 0.25 0.2552 
0.2648 0.274 0.2804 0.2882 0.3024 0.3061 0.312 0.3157 0.3235 
0.3373 0.3542 0.3719 0.3839 0.3918 0.3922 0.382 0.3629 0.3447 
0.3307 0.3231 0.321 0.3241 0.3348 0.349 0.3639 0.3755 0.3851 
0.3948 0.4004 0.3977 0.3899 0.379 0.3662 0.3518 0.3417 0.34 
0.3416 0.3432 0.3448 0.3464 0.3416 0.3304 0.3193 0.3146 0.3113 
0.3066 0.3034 0.3019 0.3002 0.2969 0.2955 0.2955 0.2993 0.3057 
0.3082 0.3043 0.2979 0.2895 0.2778 0.265 0.2584 0.2596 0.2584 
0.2596 0.2606 0.2606 0.256 0.25 0.25 0.25 0.25 0.25 
0.263 0.2854 0.3014 0.3143 0.3209 0.324 0.3211 0.3147 0.3052 
0.2988 0.2987 0.2955 0.2924 0.286 0.286 0.2892 0.2892 0.2955 
0.2955 0.2987 0.2924 0.2765 0.2542 0.25 0.25 0.25 0.25 
0.25 0.2556 0.2731 0.2972 0.3231 0.3408 0.3487 0.3469 0.3491 
0.3469 0.3408 0.34 0.3344 0.328 0.316 0.3003 0.2784 0.2531 
0.25 0.25 0.25 0.25 0.25 0.2668 0.2891 0.3051 0.3178 
0.3241 0.321 0.3051 0.3092 0.3131 0.3053 0.2911 0.2752 0.2592 
0.25 0.25 0.25 0.25 0.25 0.25 0.25 0.25 0.25 
0.25 0.25 0.25 0.2501 0.2615 0.2687 0.2683 0.2632 0.2588 
0.2518 0.25 0.25 0.25 0.25 0.25 0.25 0.25 0.25 
0.25 0.25 0.25 0.2563 0.2574 0.2574 0.2574 0.2545 0.2512 
0.25 0.25 0.25 0.25 0.25 0.25 0.25 0.25 0.25 
0.25 0.25 0.25 0.25 0.25 0.25 0.25 0.25 0.25 
0.25 0.25 0.25 0.25 0.25 0.2579 0.2712 0.2949 0.3151 
0.3205 0.3238 0.3241 0.3183 0.3001 0.2839 0.277 0.2676 0.2609 
0.2637 0.27 0.2826 0.2892 0.2955 0.2987 0.2953 0.2886 0.2692 
0.2531 0.25 0.25 0.25 0.25 0.25 0.25 0.25 0.25 
0.2515 0.2551 0.2615 0.266 0.2591 0.25 0.25 0.25 0.25 
0.25 0.25 0.25 0.25 0.25 0.25 0.25 0.25 0.25 
0.25 0.25 0.25 0.25 0.25 0.25 0.2507 0.2699 0.289 
0.3018 0.3051 0.3051 0.25 0.25 0.25 0.25 0.25 0.25 
0.25 0.25 0.25 0.25 0.25 0.25 0.25 0.25 0.25 
0.25 0.25 0.25 0.25 0.25 0.25 0.25 0.2521 0.2725 
0.297 0.3082 0.3069 0.2963 0.2803 0.2628 0.25 0.25 0.25 
0.25 0.25 0.25 0.25 0.25 0.25 0.25 0.25 0.25 
0.25 0.25 0.25 0.25 0.25 0.25 0.25 0.25 0.25 
0.25 0.25 0.25 0.25 0.25 0.25 0.25 0.25 0.25 
0.25 0.25 0.25 0.25 0.25 0.25 0.25 0.25 0.25 
0.25 0.25 0.25 0.25 0.25 0.25 0.25 0.25 0.25 
0.25 0.25 0.25 0.25 0.25 0.25 0.25 0.25 0.25 
0.25 0.25 0.25 0.25 0.25 0.25 0.25 0.25 0.25 
0.25 0.25 0.25 0.25 0.25 0.25 0.25 0.25 0.25 
0.25 0.25 0.25 0.25 0.2507 0.2539 0.2513 0.25 0.25 
0.25 0.25 0.25 0.25 0.25 0.25 0.25 0.25 0.25 
0.25 0.25 0.25 0.25 0.25 0.25 0.25 0.25 0.25 
0.25 0.25 0.25 0.25 0.25 0.25 0.2696 0.2956 0.3241 
0.3416 0.3462 0.3464 0.3374 0.3249 0.3061 0.286 0.2765 0.2663 
0.2535 0.25 0.25 0.25 0.25 0.25 0.25 0.25 0.25 
0.25 0.25 0.25 0.25 0.2561 0.2723 0.2977 0.3169 0.3257 
0.3254 0.3159 0.2971 0.2789 0.2617 0.25 0.25 0.25 0.25 
0.25 0.25 0.25 0.25 0.25 0.25 0.2542 0.2555 0.259 
0.2583 0.2525 0.2565 0.2668 0.2606 0.251 0.3335 0.3337 0.3368 
0.3305 0.3146 0.3019 0.2924 0.25 0.25 0.25 0.25 0.25 
0.25 0.25 0.25 0.25 0.25 0.2556 0.2693 0.2755 0.2742 
0.271 0.2655 0.2638 0.2614 0.2606 0.2654 0.2669 0.2669 0.262 