# vtk DataFile Version 3.0
really cool data
ASCII
DATASET POLYDATA
POINTS 10 float
40.8583938567 -24.2028358725 37.7655144327
23.896547667 19.8076520538 1.72085512103
45.2109629866 41.3644519685 -42.1825529017
28.2320528652 -38.6334625527 14.0849918883
-42.0236975403 -26.8033959196 -11.4048492432
-26.3264926296 49.8383167638 -11.0658812066
22.3836937523 -4.82539508057 -2.31267535911
4.52638127999 -6.72050398124 8.97060818708
-39.5028906444 36.1101693098 -19.1964602262
-1.32860654397 -28.9919446135 12.0087672668
LINES 27 81
2 0 6
2 1 4
2 1 5
2 1 7
2 1 8
2 2 1
2 2 5
2 2 7
2 3 2
2 3 4
2 3 9
2 4 5
2 4 8
2 4 9
2 6 1
2 6 2
2 6 9
2 7 0
2 7 1
2 8 5
2 8 6
2 9 1
2 9 3
2 9 4
2 9 5
2 9 7
2 9 8

POINT_DATA 10
SCALARS type int 1
LOOKUP_TABLE default
0
0
0
0
0
0
0
0
1
1

